# t (s)	mx ()	my ()	mz ()	E_total (J)
0	-5.073547e-10	-9.57489e-10	0.9960304	1.0892519e-18
5.039627034557278e-14	-4.844666e-10	-9.307861e-10	0.9960304	1.0942009e-18
1.0314339064895582e-13	-5.1879884e-10	-9.393692e-10	0.99603033	1.1078137e-18
1.5304087730532657e-13	-5.1116944e-10	-9.527207e-10	0.9960303	1.1202455e-18
2.0290431649032171e-13	-5.092621e-10	-9.54628e-10	0.9960301	1.1312138e-18
2.5075462038445796e-13	-4.920959e-10	-9.593963e-10	0.99602985	1.1405868e-18
3.001516255281877e-13	-4.673004e-10	-9.431839e-10	0.9960298	1.1493392e-18
3.512807802796032e-13	-4.692078e-10	-9.498596e-10	0.99602973	1.1575584e-18
4.0151408735759166e-13	-4.673004e-10	-9.698867e-10	0.99602956	1.1649577e-18
4.5104726492260473e-13	-4.501343e-10	-9.799004e-10	0.9960294	1.1716907e-18
5.000078803492573e-13	-4.386902e-10	-1.0032654e-09	0.9960293	1.1778524e-18
5.511886573406569e-13	-4.5204163e-10	-9.95636e-10	0.9960292	1.1838531e-18
6.019919175605198e-13	-4.5394896e-10	-9.608269e-10	0.99602914	1.189505e-18
6.52235347559556e-13	-4.6157836e-10	-9.765625e-10	0.996029	1.1944098e-18
7.021442208352218e-13	-4.787445e-10	-9.794235e-10	0.9960289	1.1989128e-18
7.522554026333127e-13	-4.425049e-10	-9.613037e-10	0.9960287	1.2040138e-18
8.012790042836609e-13	-4.501343e-10	-9.775162e-10	0.9960287	1.2072889e-18
8.522776428443677e-13	-4.3964385e-10	-9.727478e-10	0.99602866	1.2098051e-18
9.008524072941897e-13	-4.2766332e-10	-9.748936e-10	0.99602866	1.212455e-18
9.525721451625479e-13	-4.0245057e-10	-9.460449e-10	0.99602854	1.2163813e-18
1.0019862875158024e-12	-3.7956238e-10	-9.2983243e-10	0.99602854	1.2208017e-18
1.0500356667430952e-12	-4.0340423e-10	-9.407997e-10	0.9960284	1.222791e-18
1.1022959451643726e-12	-4.0626527e-10	-9.54628e-10	0.99602836	1.2236848e-18
1.151306300128316e-12	-4.0340423e-10	-9.589195e-10	0.9960284	1.2234911e-18
1.200082300403706e-12	-3.8909911e-10	-9.536744e-10	0.99602836	1.2230009e-18
1.2515501236797197e-12	-3.8528442e-10	-9.317398e-10	0.9960285	1.2228057e-18
1.3005427377727951e-12	-3.6907197e-10	-9.484291e-10	0.99602836	1.2225891e-18
1.351963287774128e-12	-3.5476685e-10	-8.859634e-10	0.99602854	1.2223335e-18
1.4014623456500065e-12	-3.633499e-10	-8.8882446e-10	0.99602836	1.2228002e-18
1.4522020103102867e-12	-3.6811829e-10	-9.098053e-10	0.99602836	1.2252099e-18
1.5009151169155859e-12	-3.299713e-10	-9.069443e-10	0.9960283	1.2284683e-18
1.5521387360179979e-12	-3.2234193e-10	-8.926392e-10	0.9960283	1.2318771e-18
1.6002946400084946e-12	-3.1852723e-10	-9.069443e-10	0.99602824	1.2342372e-18
1.6523922900463157e-12	-3.2043457e-10	-9.059906e-10	0.99602824	1.2349609e-18
1.7013909177411266e-12	-2.9182434e-10	-9.1600416e-10	0.99602824	1.2347394e-18
1.7501694732187937e-12	-2.746582e-10	-9.374619e-10	0.9960282	1.2342173e-18
1.8016607031718352e-12	-2.7084351e-10	-9.2053415e-10	0.9960281	1.2340449e-18
1.851304586204154e-12	-2.861023e-10	-9.1171265e-10	0.9960282	1.2347707e-18
1.9011461970739423e-12	-2.746582e-10	-9.0408325e-10	0.9960282	1.2358118e-18
1.9503997992428993e-12	-2.8038025e-10	-9.012222e-10	0.99602824	1.2359558e-18
2.001401454459503e-12	-2.784729e-10	-9.021759e-10	0.99602824	1.2351246e-18
2.051789636906316e-12	-2.822876e-10	-9.479523e-10	0.99602836	1.23355e-18
2.1019115095085655e-12	-2.7275085e-10	-9.250641e-10	0.9960283	1.231698e-18
2.1514957753154606e-12	-2.9182434e-10	-9.307861e-10	0.99602836	1.229324e-18
2.2008454658596503e-12	-2.9373168e-10	-9.222031e-10	0.99602836	1.2267713e-18
2.2504303433261444e-12	-2.8991698e-10	-9.145737e-10	0.9960285	1.22448e-18
2.300755302889517e-12	-3.1471253e-10	-9.186268e-10	0.9960284	1.2229588e-18
2.3520300306111482e-12	-3.1757355e-10	-9.469986e-10	0.99602836	1.2225309e-18
2.4012892789426636e-12	-3.1280517e-10	-9.250641e-10	0.9960284	1.2226675e-18
2.4502063452506276e-12	-3.1661987e-10	-8.773804e-10	0.9960284	1.2223668e-18
2.5010049797495867e-12	-3.3187866e-10	-9.152889e-10	0.99602836	1.2213743e-18
2.5519740988654733e-12	-3.1471253e-10	-8.9645386e-10	0.99602836	1.2205845e-18
2.6008839806208037e-12	-3.33786e-10	-8.840561e-10	0.99602836	1.2202758e-18
2.6501616961616536e-12	-3.414154e-10	-9.1075897e-10	0.99602836	1.2204415e-18
2.7024203202449473e-12	-3.1661987e-10	-9.174347e-10	0.99602836	1.221331e-18
2.7511808526638654e-12	-3.1280517e-10	-9.069443e-10	0.99602836	1.2208514e-18
2.8018190776883917e-12	-3.194809e-10	-8.907318e-10	0.99602836	1.2197018e-18
2.850227952463448e-12	-3.5858155e-10	-8.3732604e-10	0.99602836	1.2188162e-18
2.90119615006481e-12	-3.3950806e-10	-8.544922e-10	0.99602836	1.2180475e-18
2.951839699332952e-12	-3.2234193e-10	-8.368492e-10	0.9960284	1.2169263e-18
3.0000490723931813e-12	-3.33786e-10	-8.8119506e-10	0.99602836	1.2158445e-18
3.0506405630191656e-12	-3.7002562e-10	-8.764267e-10	0.9960285	1.2146896e-18
3.1014007779267715e-12	-3.5858155e-10	-8.955002e-10	0.9960284	1.2137227e-18
3.1502670141377497e-12	-3.566742e-10	-9.2029573e-10	0.9960285	1.2133891e-18
3.2023034872609127e-12	-3.7765502e-10	-9.0312957e-10	0.99602836	1.2139387e-18
3.2502563086102472e-12	-3.33786e-10	-8.907318e-10	0.99602836	1.2156877e-18
3.301225829384416e-12	-3.2806396e-10	-8.907318e-10	0.99602836	1.2183594e-18
3.3517589279703842e-12	-3.0517577e-10	-8.8977814e-10	0.99602836	1.2203498e-18
3.402203854807306e-12	-2.822876e-10	-8.430481e-10	0.9960283	1.2222271e-18
3.4523351962630713e-12	-2.822876e-10	-8.573532e-10	0.9960283	1.223635e-18
3.501767894786755e-12	-2.8419495e-10	-8.773804e-10	0.99602836	1.2240226e-18
3.550770518137083e-12	-3.414154e-10	-8.4519386e-10	0.99602836	1.2238332e-18
3.6021975404930387e-12	-3.2711028e-10	-8.72612e-10	0.9960284	1.2236002e-18
3.6513425109503925e-12	-3.2520295e-10	-8.928776e-10	0.9960284	1.2235969e-18
3.700931675159153e-12	-3.4332276e-10	-8.544922e-10	0.9960284	1.2242051e-18
3.751071592855451e-12	-3.2806396e-10	-8.621216e-10	0.9960284	1.2256456e-18
3.801163896570513e-12	-3.3569336e-10	-8.7785723e-10	0.99602836	1.2270247e-18
3.851303947014481e-12	-2.8038025e-10	-9.1052055e-10	0.99602836	1.228494e-18
3.9015723870518394e-12	-2.3651123e-10	-9.059906e-10	0.99602836	1.2301908e-18
3.9516658556871675e-12	-2.384186e-10	-8.3637236e-10	0.99602836	1.2316164e-18
4.0018721361124395e-12	-2.5081634e-10	-8.544922e-10	0.9960283	1.2332469e-18
4.052466070435541e-12	-2.4604796e-10	-8.325577e-10	0.99602836	1.2355848e-18
4.102217469550785e-12	-2.641678e-10	-8.182526e-10	0.99602836	1.2365185e-18
4.151232144693149e-12	-2.4804472e-10	-8.687973e-10	0.9960283	1.2363334e-18
4.200072932706958e-12	-2.6321412e-10	-8.75473e-10	0.9960284	1.2359069e-18
4.251268505644674e-12	-2.7656555e-10	-8.72612e-10	0.9960284	1.2353425e-18
4.300044694234562e-12	-2.6702882e-10	-8.7356566e-10	0.9960286	1.2348317e-18
4.3513115556277524e-12	-2.8896333e-10	-8.7237356e-10	0.9960284	1.2343665e-18
4.40017739787401e-12	-3.2043457e-10	-8.6593627e-10	0.99602854	1.2339797e-18
4.451713042291164e-12	-3.0136107e-10	-8.382797e-10	0.9960284	1.2338865e-18
4.5010788079750314e-12	-2.6321412e-10	-8.7356566e-10	0.9960285	1.2342078e-18
4.550626260507186e-12	-2.6130675e-10	-8.459091e-10	0.9960284	1.2348043e-18
4.600394578285835e-12	-2.6512145e-10	-8.430481e-10	0.99602836	1.2357521e-18
4.650924861746608e-12	-2.6893615e-10	-8.5926055e-10	0.9960284	1.2380323e-18
4.700104151673969e-12	-2.8800964e-10	-8.5258484e-10	0.9960283	1.2426896e-18
4.752389466291782e-12	-2.6893615e-10	-8.442402e-10	0.9960282	1.2490185e-18
4.8017486832465014e-12	-2.784729e-10	-8.707047e-10	0.996028	1.2544464e-18
4.8511838235873804e-12	-2.5939942e-10	-8.640289e-10	0.99602795	1.2602612e-18
4.900611445696414e-12	-2.2888183e-10	-8.6021423e-10	0.9960278	1.2662624e-18
4.95213546244203e-12	-2.5177002e-10	-8.4495544e-10	0.99602777	1.2714263e-18
5.000374431084515e-12	-2.4986266e-10	-8.5830687e-10	0.99602765	1.2746613e-18
5.050666432261508e-12	-2.384186e-10	-8.575916e-10	0.9960275	1.2769913e-18
5.100644405975795e-12	-2.2888183e-10	-8.506775e-10	0.9960276	1.2786586e-18
5.150326200013807e-12	-2.117157e-10	-8.7356566e-10	0.9960276	1.2797164e-18
5.202421156861226e-12	-1.7356873e-10	-8.5163115e-10	0.9960276	1.2806866e-18
5.252247140178406e-12	-2.1362305e-10	-8.5163115e-10	0.9960274	1.2820581e-18
5.302240778488269e-12	-1.964569e-10	-8.430481e-10	0.99602735	1.2838034e-18
5.3521912044253754e-12	-1.9711256e-10	-8.2993507e-10	0.9960273	1.2854686e-18
5.401968515495891e-12	-1.2397766e-10	-7.8296664e-10	0.9960273	1.2867702e-18
5.451645564614261e-12	-1.2779236e-10	-7.138252e-10	0.9960273	1.2878637e-18
5.5015115472816686e-12	-1.7929078e-10	-7.0095063e-10	0.9960273	1.2893786e-18
5.551841814912225e-12	-2.2506715e-10	-7.0762635e-10	0.99602723	1.2919926e-18
5.6002006694190664e-12	-2.0599365e-10	-7.1525574e-10	0.9960271	1.2959187e-18
5.651113243262568e-12	-1.5938283e-10	-7.2193146e-10	0.9960271	1.3001532e-18
5.701620820818452e-12	-1.373291e-10	-7.0667266e-10	0.996027	1.3033704e-18
5.751674567349723e-12	-1.7738343e-10	-6.713867e-10	0.99602705	1.3054619e-18
5.80144924116949e-12	-1.7738343e-10	-7.1525574e-10	0.9960271	1.306891e-18
5.851060918557873e-12	-1.5258789e-10	-7.0095063e-10	0.99602705	1.3079443e-18
5.900544719923195e-12	-1.5926362e-10	-6.904602e-10	0.996027	1.3087066e-18
5.952228808315465e-12	-1.4495849e-10	-7.133484e-10	0.996027	1.3088981e-18
6.001048336123654e-12	-1.3542176e-10	-7.1430206e-10	0.996027	1.308231e-18
6.051957725042041e-12	-1.4019012e-10	-7.0095063e-10	0.99602693	1.3068406e-18
6.100506380802132e-12	-1.5640259e-10	-6.837845e-10	0.9960269	1.3056462e-18
6.151885722296243e-12	-1.8501281e-10	-6.985664e-10	0.996027	1.3051986e-18
6.201361543573796e-12	-1.8692016e-10	-7.4768064e-10	0.9960271	1.3059407e-18
6.251577271834313e-12	-1.0108948e-10	-7.1525574e-10	0.99602693	1.3084826e-18
6.301896333480603e-12	-1.06811525e-10	-6.904602e-10	0.996027	1.3113184e-18
6.351866210142588e-12	-1.2588501e-10	-6.4754485e-10	0.99602693	1.3132767e-18
6.401762932655276e-12	-1.3351441e-10	-6.4754485e-10	0.9960269	1.3150666e-18
6.451813559856558e-12	-1.4877319e-10	-6.6184996e-10	0.9960269	1.3172686e-18
6.501824039825086e-12	-1.5830993e-10	-6.6661837e-10	0.9960268	1.3193872e-18
6.551690032937544e-12	-1.6403198e-10	-6.8235395e-10	0.9960268	1.3211465e-18
6.601504115523657e-12	-1.8501281e-10	-6.9236755e-10	0.99602675	1.3227865e-18
6.6513897604082685e-12	-1.6784668e-10	-6.761551e-10	0.99602664	1.3246244e-18
6.7015035019577415e-12	-1.5640259e-10	-6.637573e-10	0.9960266	1.3270971e-18
6.752230165690782e-12	-1.7166138e-10	-6.885529e-10	0.9960266	1.3314063e-18
6.801159037670387e-12	-2.2888183e-10	-6.799698e-10	0.9960264	1.3380617e-18
6.850588261117132e-12	-1.7738343e-10	-7.047653e-10	0.9960263	1.3468275e-18
6.9023265510729895e-12	-1.7929078e-10	-7.0762635e-10	0.9960261	1.3552028e-18
6.951041693436607e-12	-1.6593933e-10	-7.104874e-10	0.99602604	1.3616766e-18
7.001947592386348e-12	-1.8882751e-10	-7.333755e-10	0.9960259	1.3672567e-18
7.052488737451399e-12	-1.7738343e-10	-7.4577333e-10	0.9960258	1.371626e-18
7.1024173955916036e-12	-1.5830993e-10	-7.343292e-10	0.9960258	1.3739972e-18
7.151895513075422e-12	-1.6307831e-10	-7.4768064e-10	0.9960259	1.3749872e-18
7.201041899015208e-12	-1.4686584e-10	-7.486343e-10	0.996026	1.3750189e-18
7.252272533927389e-12	-1.2969971e-10	-7.46727e-10	0.996026	1.3740382e-18
7.300839563700158e-12	-1.1062622e-10	-7.2836875e-10	0.99602604	1.3725297e-18
7.351845644138706e-12	-1.0585785e-10	-7.596016e-10	0.9960261	1.3709822e-18
7.400581461310308e-12	-8.964539e-11	-7.6770784e-10	0.99602616	1.369918e-18
7.452060892593513e-12	-1.3160706e-10	-7.867813e-10	0.9960261	1.3696141e-18
7.501345636681728e-12	-9.918213e-11	-7.7533724e-10	0.9960261	1.3700332e-18
7.550592562195425e-12	-8.964539e-11	-7.748604e-10	0.99602604	1.3703504e-18
7.60191510017977e-12	-7.534027e-11	-7.6293943e-10	0.9960261	1.3696259e-18
7.650677961226608e-12	-8.773804e-11	-7.686615e-10	0.9960261	1.3686362e-18
7.701681945914697e-12	-1.16348264e-10	-7.572174e-10	0.9960261	1.3671038e-18
7.750005336043795e-12	-1.3065338e-10	-7.429123e-10	0.99602616	1.3650474e-18
7.800503207073486e-12	-1.06811525e-10	-7.572174e-10	0.9960261	1.3623543e-18
7.850744890912892e-12	-1.3923646e-10	-7.171631e-10	0.9960261	1.3591368e-18
7.900872093596757e-12	-1.7547608e-10	-7.5531004e-10	0.9960263	1.3557199e-18
7.951092164596535e-12	-1.373291e-10	-7.6293943e-10	0.99602634	1.3525356e-18
8.001604542223803e-12	-1.5640259e-10	-7.93457e-10	0.99602634	1.349998e-18
8.052039298081263e-12	-9.155274e-11	-7.715225e-10	0.9960264	1.3473214e-18
8.102251302615426e-12	-8.392334e-11	-7.0405004e-10	0.99602646	1.344222e-18
8.152316111055611e-12	-7.820129e-11	-7.0333483e-10	0.9960266	1.3408757e-18
8.202109864718047e-12	-7.4386594e-11	-6.5279004e-10	0.99602664	1.3370788e-18
8.251572300104729e-12	-1.3160706e-10	-6.875992e-10	0.9960267	1.3327757e-18
8.300845652737719e-12	-1.08718874e-10	-7.138252e-10	0.9960267	1.3282463e-18
8.35009970503344e-12	-1.4495849e-10	-7.2574613e-10	0.9960268	1.3237717e-18
8.401819335399889e-12	-1.3542176e-10	-7.5912476e-10	0.9960269	1.319357e-18
8.451267571951711e-12	-1.001358e-10	-7.2193146e-10	0.9960269	1.3153408e-18
8.500760794424805e-12	-1.7166138e-10	-7.1430206e-10	0.9960269	1.3114628e-18
8.550367076131843e-12	-1.7738343e-10	-7.5340273e-10	0.996027	1.3078206e-18
8.600064657470165e-12	-1.4877319e-10	-7.944107e-10	0.99602705	1.3043764e-18
8.652240266961498e-12	-1.6784668e-10	-7.70092e-10	0.9960271	1.3009946e-18
8.702167138838573e-12	-2.2888183e-10	-7.9059603e-10	0.9960272	1.2980038e-18
8.752127683915328e-12	-2.231598e-10	-8.2969664e-10	0.9960271	1.295108e-18
8.802203054387707e-12	-1.8310548e-10	-8.6784363e-10	0.9960272	1.2924277e-18
8.850122970894545e-12	-1.3938546e-10	-8.430481e-10	0.99602723	1.2902632e-18
8.900500366585544e-12	-1.411438e-10	-8.478165e-10	0.99602723	1.2881119e-18
8.950714019482395e-12	-1.4877319e-10	-8.5639956e-10	0.9960273	1.2857324e-18
9.000698840864568e-12	-1.6784668e-10	-8.3494184e-10	0.9960273	1.2830445e-18
9.050572804884694e-12	-1.6212463e-10	-8.716583e-10	0.99602735	1.2802372e-18
9.100480363179238e-12	-1.411438e-10	-8.6688995e-10	0.9960274	1.2775159e-18
9.150463277639838e-12	-1.8119813e-10	-8.831024e-10	0.9960274	1.2749368e-18
9.20050088870002e-12	-1.6212463e-10	-8.907318e-10	0.9960276	1.2724672e-18
9.250683265582295e-12	-1.4495849e-10	-9.1838837e-10	0.99602765	1.2702304e-18
9.301100625413045e-12	-1.3160706e-10	-8.966923e-10	0.9960276	1.2683524e-18
9.351799656122353e-12	-1.3542176e-10	-8.9740754e-10	0.9960276	1.2669069e-18
9.400343337259153e-12	-1.2779236e-10	-9.536744e-10	0.99602765	1.2659366e-18
9.45163203590435e-12	-6.1035156e-11	-9.431839e-10	0.9960277	1.2654352e-18
9.500969250935515e-12	-1.3351441e-11	-9.098053e-10	0.99602765	1.2658053e-18
9.551002786568253e-12	-5.912781e-11	-8.5926055e-10	0.9960276	1.2675176e-18
9.601129142913006e-12	-9.346008e-11	-8.8882446e-10	0.9960276	1.2694342e-18
9.650787042015924e-12	-1.14440915e-10	-8.611679e-10	0.99602765	1.2704177e-18
9.70013134359896e-12	-9.4413755e-11	-8.654594e-10	0.99602765	1.2708092e-18
9.751816316471275e-12	-1.411438e-10	-8.2874296e-10	0.9960277	1.2709878e-18
9.801141773846813e-12	-1.5640259e-10	-8.454323e-10	0.99602765	1.271346e-18
9.850804664908077e-12	-1.7356873e-10	-8.5163115e-10	0.99602765	1.2723503e-18
9.900995968958165e-12	-1.2969971e-10	-8.6593627e-10	0.99602765	1.2744593e-18
9.951665533338848e-12	-1.077652e-10	-8.621216e-10	0.9960276	1.2776886e-18
1.0001999421149016e-11	-9.155274e-11	-9.1576574e-10	0.9960276	1.2801849e-18
1.0051762217554527e-11	-8.6784364e-11	-8.8119506e-10	0.99602765	1.281447e-18
1.0101132117748543e-11	-1.1825561e-10	-9.069443e-10	0.99602765	1.2819121e-18
1.0150346799685836e-11	-4.863739e-11	-9.346008e-10	0.9960276	1.2820755e-18
1.0202082042866867e-11	-5.1498413e-11	-8.4877017e-10	0.9960276	1.2823629e-18
1.0251445918889045e-11	-4.1007996e-11	-8.401871e-10	0.9960275	1.2828184e-18
1.0300891993907082e-11	-7.629394e-11	-8.1443785e-10	0.9960274	1.2834389e-18
1.0350528974757404e-11	-8.583069e-11	-8.649826e-10	0.9960274	1.2844549e-18
1.04005051587927e-11	-6.6757204e-11	-8.2302093e-10	0.99602735	1.2862145e-18
1.0450882030262605e-11	-1.0585785e-10	-7.953644e-10	0.9960273	1.2889259e-18
1.0501589249588906e-11	-9.155274e-11	-8.2683566e-10	0.99602735	1.2925065e-18
1.0550020053350815e-11	-7.44164e-11	-8.354187e-10	0.99602723	1.2966678e-18
1.0601336553801419e-11	-4.577637e-11	-8.354187e-10	0.9960272	1.3021207e-18
1.0650463234331513e-11	-4.005432e-11	-7.867813e-10	0.9960272	1.3086277e-18
1.0702483410563024e-11	-8.773804e-11	-7.858276e-10	0.9960269	1.3167601e-18
1.0751705175462116e-11	-6.866455e-11	-8.3732604e-10	0.9960268	1.3240514e-18
1.0800486853379185e-11	-4.577637e-11	-7.648468e-10	0.9960268	1.3300187e-18
1.0851648449586762e-11	-1.2016296e-10	-7.646084e-10	0.99602664	1.3358167e-18
1.090020081569531e-11	-1.6784668e-10	-7.815361e-10	0.9960265	1.341279e-18
1.0951167493382093e-11	-2.1743775e-10	-8.478165e-10	0.99602646	1.3466704e-18
1.100209071338236e-11	-9.155274e-11	-8.802414e-10	0.99602616	1.3520264e-18
1.1050511266737172e-11	-6.389618e-11	-8.2206725e-10	0.9960261	1.3573737e-18
1.1101575339544321e-11	-7.05719e-11	-7.8201295e-10	0.996026	1.3634707e-18
1.1150059563172863e-11	-9.727478e-11	-7.7438356e-10	0.99602586	1.3692918e-18
1.1200990358987268e-11	-1.2969971e-10	-7.984638e-10	0.9960258	1.3751506e-18
1.1251865278477264e-11	-8.964539e-11	-8.1443785e-10	0.9960257	1.380917e-18
1.1302253934681098e-11	-9.155274e-11	-7.638931e-10	0.9960256	1.3849865e-18
1.1352021040374096e-11	-1.039505e-10	-8.120537e-10	0.99602556	1.3869678e-18
1.1401265386319455e-11	-8.106232e-11	-7.724762e-10	0.99602556	1.3873203e-18
1.1450136662617084e-11	-1.2588501e-10	-8.1133844e-10	0.9960257	1.3865933e-18
1.1501183727638811e-11	-1.2874603e-10	-8.0490115e-10	0.99602556	1.3851007e-18
1.1552000849977149e-11	-1.3697148e-10	-8.306503e-10	0.9960257	1.383022e-18
1.1600202940901036e-11	-1.08718874e-10	-8.392334e-10	0.99602574	1.380572e-18
1.1650658456463417e-11	-1.08718874e-10	-8.5830687e-10	0.99602574	1.3776495e-18
1.1701035184950806e-11	-1.3351441e-10	-8.292198e-10	0.9960258	1.3745762e-18
1.175139028519943e-11	-1.373291e-10	-8.554459e-10	0.99602586	1.3714869e-18
1.180172446113207e-11	-1.06811525e-10	-8.459091e-10	0.99602586	1.3683853e-18
1.1852012998529906e-11	-6.866455e-11	-8.249283e-10	0.99602586	1.3652164e-18
1.1902262153047565e-11	-9.918213e-11	-8.163452e-10	0.99602604	1.3620004e-18
1.1950127701366203e-11	-1.1062622e-10	-8.010864e-10	0.9960261	1.3589917e-18
1.2000441708487116e-11	-1.3351441e-10	-7.9727175e-10	0.99602616	1.3559835e-18
1.2050857403736477e-11	-1.1062622e-10	-8.201599e-10	0.9960263	1.3532234e-18
1.2101375459491658e-11	-1.14440915e-10	-8.1920626e-10	0.9960263	1.350709e-18
1.2152001789209515e-11	-9.155274e-11	-8.826256e-10	0.99602634	1.3484517e-18
1.2200378167755185e-11	-8.392334e-11	-8.9120866e-10	0.9960264	1.3466711e-18
1.2251423508535663e-11	-6.771088e-11	-9.174347e-10	0.9960264	1.3453778e-18
1.230039202375811e-11	-5.7220458e-11	-9.1171265e-10	0.9960264	1.344991e-18
1.2352393626811767e-11	-7.05719e-11	-8.993149e-10	0.9960264	1.3460933e-18
1.2400148766561065e-11	-6.2942505e-11	-9.0169905e-10	0.99602616	1.3491471e-18
1.2451112202697415e-11	-6.2942505e-11	-8.9645386e-10	0.9960261	1.3547065e-18
1.2502000993807432e-11	-7.647276e-11	-8.8214874e-10	0.996026	1.3601132e-18
1.2550166407562052e-11	-7.4386594e-11	-8.792877e-10	0.996026	1.3647119e-18
1.2600671285008426e-11	-9.822845e-11	-8.354187e-10	0.9960259	1.3689498e-18
1.2650992286286491e-11	-1.2493133e-10	-8.850098e-10	0.9960258	1.3726154e-18
1.2701214208219174e-11	-1.04904176e-10	-9.0312957e-10	0.9960258	1.3759921e-18
1.2751436916277283e-11	-8.964539e-11	-8.707047e-10	0.9960258	1.3794119e-18
1.2801548602420692e-11	-1.16348264e-10	-8.52108e-10	0.99602574	1.3824925e-18
1.2851408272290097e-11	-1.5830993e-10	-8.6593627e-10	0.9960257	1.3847585e-18
1.2900996586507268e-11	-1.06811525e-10	-9.1838837e-10	0.9960257	1.3861641e-18
1.2950366836153235e-11	-1.04904176e-10	-8.831024e-10	0.9960257	1.3868968e-18
1.3002068458269643e-11	-1.14440915e-10	-8.5258484e-10	0.9960257	1.387253e-18
1.3051178804937462e-11	-1.7929078e-10	-8.6593627e-10	0.9960257	1.3872138e-18
1.310219782414425e-11	-1.3923646e-10	-9.336472e-10	0.99602574	1.3856552e-18
1.3150334250447253e-11	-8.773804e-11	-8.8882446e-10	0.9960258	1.3830293e-18
1.3200571838810007e-11	-1.3351441e-10	-8.4877017e-10	0.9960259	1.3795846e-18
1.3250668654111541e-11	-1.6212463e-10	-8.382797e-10	0.99602604	1.37587e-18
1.330077900652704e-11	-1.9836426e-10	-8.935928e-10	0.9960261	1.3722317e-18
1.3351065396137891e-11	-1.02996826e-10	-9.438992e-10	0.9960261	1.3690228e-18
1.3401657895783e-11	-1.1062622e-10	-8.75473e-10	0.99602616	1.3665363e-18
1.3450055836253907e-11	-1.2969971e-10	-8.5639956e-10	0.9960263	1.3646864e-18
1.3500890036159281e-11	-1.6593933e-10	-8.6593627e-10	0.9960263	1.3627965e-18
1.355186545020653e-11	-1.5068054e-10	-8.907318e-10	0.9960264	1.3612554e-18
1.360043314460742e-11	-1.06811525e-10	-8.995533e-10	0.9960264	1.3598454e-18
1.365110177696214e-11	-1.0108948e-10	-8.676052e-10	0.99602646	1.3576099e-18
1.3701570419241685e-11	-1.2016296e-10	-8.621216e-10	0.99602646	1.3549516e-18
1.3752011846773843e-11	-1.2588501e-10	-8.3732604e-10	0.9960264	1.3522621e-18
1.3800176002829098e-11	-1.04904176e-10	-8.859634e-10	0.99602646	1.3499928e-18
1.3851000787934884e-11	-7.534027e-11	-8.554459e-10	0.9960264	1.3481844e-18
1.3902126964344524e-11	-1.1825561e-10	-8.792877e-10	0.99602646	1.3470779e-18
1.395096798058191e-11	-9.6321104e-11	-9.188652e-10	0.9960264	1.3463811e-18
1.4002267768836383e-11	-1.1253357e-10	-9.441375e-10	0.9960264	1.3456925e-18
1.4050994607954611e-11	-8.010864e-11	-9.1075897e-10	0.99602634	1.3447305e-18
1.4101928974564471e-11	-6.198883e-11	-9.307861e-10	0.9960264	1.3432018e-18
1.4150287500882604e-11	-4.577637e-11	-9.422302e-10	0.99602634	1.3414249e-18
1.420102273076233e-11	-1.3351441e-11	-9.1958047e-10	0.9960264	1.3394841e-18
1.4251777109974906e-11	1.1444092e-11	-8.5830687e-10	0.99602646	1.3375991e-18
1.4302351921907556e-11	-5.531311e-11	-8.630753e-10	0.9960264	1.3353564e-18
1.4350324447119448e-11	-1.7166138e-11	-8.916855e-10	0.99602646	1.3328526e-18
1.4400531685312032e-11	-2.3841857e-11	-8.926392e-10	0.9960265	1.3299391e-18
1.44506941410161e-11	-4.9591064e-11	-9.002686e-10	0.9960265	1.3269765e-18
1.450093847640112e-11	-5.3405762e-11	-8.5926055e-10	0.99602664	1.3241999e-18
1.4551358852994509e-11	-3.814697e-11	-8.802414e-10	0.9960265	1.3217813e-18
1.4601918698549635e-11	3.8146973e-12	-8.7571145e-10	0.9960266	1.3196493e-18
1.4652391123576466e-11	1.4305114e-11	-8.535385e-10	0.9960267	1.3173742e-18
1.4700338425469508e-11	-9.864568e-12	-8.3327295e-10	0.99602675	1.315008e-18
1.4750582838299032e-11	-7.05719e-11	-8.1133844e-10	0.99602675	1.3123735e-18
1.4800636870379162e-11	-1.06811525e-10	-8.5830687e-10	0.9960269	1.3094497e-18
1.4850283304485146e-11	-7.629394e-11	-9.16481e-10	0.99602693	1.3059207e-18
1.4901875076307022e-11	-8.392334e-11	-9.021759e-10	0.996027	1.3016825e-18
1.495077560817006e-11	-5.531311e-11	-8.9740754e-10	0.99602705	1.2972593e-18
1.5001710240199118e-11	-7.629394e-11	-9.2601776e-10	0.9960272	1.2923701e-18
1.5050135585615587e-11	-7.629394e-11	-9.727478e-10	0.9960273	1.2875918e-18
1.5100767414245823e-11	-1.9073486e-11	-9.450912e-10	0.99602735	1.2826012e-18
1.5151426389756848e-11	2.2888184e-11	-9.045601e-10	0.9960274	1.2777642e-18
1.520227599354096e-11	-2.3216009e-11	-9.002686e-10	0.9960275	1.273245e-18
1.5251148495240755e-11	-6.866455e-11	-9.527207e-10	0.9960276	1.2693869e-18
1.5300466274948398e-11	3.8146973e-12	-9.863377e-10	0.9960276	1.2661077e-18
1.5350302920667648e-11	3.814697e-11	-9.098053e-10	0.9960277	1.2635151e-18
1.5400675272923214e-11	-3.8146973e-12	-8.687973e-10	0.9960277	1.2616634e-18
1.5451561501777707e-11	-2.3841857e-11	-8.9645386e-10	0.9960277	1.2605663e-18
1.550050088219956e-11	7.6293945e-12	-8.859634e-10	0.9960277	1.2602696e-18
1.5552422886010515e-11	1.7166138e-11	-8.859634e-10	0.99602777	1.2608717e-18
1.56021247767059e-11	0	-8.9645386e-10	0.99602777	1.2619057e-18
1.5651954950451545e-11	-3.6239622e-11	-9.231567e-10	0.99602777	1.2631922e-18
1.570200375210388e-11	1.8119811e-11	-9.2697144e-10	0.99602777	1.2649219e-18
1.5752300861975138e-11	4.196167e-11	-9.1075897e-10	0.9960277	1.2671861e-18
1.5800296041763954e-11	5.7220458e-11	-9.0265273e-10	0.99602765	1.2698317e-18
1.5850871993602422e-11	1.7166138e-11	-8.466244e-10	0.99602765	1.2727842e-18
1.5901414890163208e-11	-3.2424927e-11	-9.069443e-10	0.9960275	1.2757076e-18
1.5952049125551313e-11	4.577637e-11	-8.72612e-10	0.99602735	1.278895e-18
1.6000352069638968e-11	5.2452088e-11	-8.707047e-10	0.99602735	1.2824719e-18
1.605144358895583e-11	7.820129e-11	-8.573532e-10	0.9960273	1.2869573e-18
1.6100054732272423e-11	4.005432e-11	-8.2969664e-10	0.99602723	1.2915203e-18
1.615131553694109e-11	9.536743e-12	-8.935928e-10	0.99602705	1.2967004e-18
1.62001363956532e-11	2.6702881e-11	-9.021759e-10	0.996027	1.3021138e-18
1.6251320444450074e-11	3.6239622e-11	-9.059906e-10	0.996027	1.3073342e-18
1.6302188359651262e-11	1.115799e-10	-9.231567e-10	0.9960269	1.3117345e-18
1.6350287918186905e-11	1.4877319e-10	-8.714199e-10	0.996027	1.3153402e-18
1.6400762524536585e-11	1.2779236e-10	-8.630753e-10	0.9960269	1.3187487e-18
1.6451136055692105e-11	9.727478e-11	-8.2206725e-10	0.9960269	1.3219212e-18
1.6501466144912386e-11	6.1035156e-11	-7.910728e-10	0.9960269	1.3250136e-18
1.655181252552223e-11	4.577637e-11	-8.420944e-10	0.99602675	1.3281931e-18
1.6602221953739814e-11	8.8691714e-11	-8.1777574e-10	0.9960267	1.3316015e-18
1.6650202647923755e-11	8.583069e-11	-7.658005e-10	0.99602664	1.3351617e-18
1.670084443808645e-11	5.7220458e-11	-7.7724455e-10	0.9960265	1.3393911e-18
1.6751668105035672e-11	4.7683715e-11	-7.9154966e-10	0.99602646	1.3442883e-18
1.6800081196714705e-11	8.964539e-11	-7.762909e-10	0.9960263	1.3494764e-18
1.685100684575747e-11	7.820129e-11	-7.410049e-10	0.99602604	1.3549259e-18
1.6901853157842373e-11	5.531311e-11	-7.9917906e-10	0.996026	1.360208e-18
1.6950182326450553e-11	1.9073486e-12	-7.801056e-10	0.9960258	1.3654136e-18
1.7001248208393547e-11	2.0980835e-11	-8.2683566e-10	0.99602574	1.3717299e-18
1.705213681419606e-11	6.2942505e-11	-8.1539153e-10	0.9960256	1.3775086e-18
1.7100192477316093e-11	7.2479245e-11	-8.2969664e-10	0.9960257	1.3820181e-18
1.715060332988323e-11	1.2779236e-10	-8.106232e-10	0.99602556	1.3862003e-18
1.720092165738366e-11	1.192093e-10	-7.6150897e-10	0.99602556	1.3901042e-18
1.7251202169138135e-11	1.2588501e-10	-6.9904327e-10	0.9960255	1.3939215e-18
1.730152249391165e-11	6.6757204e-11	-6.67572e-10	0.9960254	1.3979351e-18
1.7351846030109868e-11	7.6293945e-12	-6.20842e-10	0.9960254	1.4020138e-18
1.740226407764138e-11	-4.4822694e-11	-7.0762635e-10	0.99602526	1.4065111e-18
1.745025510762304e-11	1.5258789e-11	-7.5149537e-10	0.99602515	1.4112144e-18
1.7500772724027304e-11	4.9591064e-11	-7.047653e-10	0.99602515	1.416244e-18
1.7551316383933898e-11	1.3351441e-11	-6.599426e-10	0.996025	1.4214618e-18
1.7601937211706554e-11	7.6293945e-12	-7.038116e-10	0.99602497	1.4270902e-18
1.7650123629326686e-11	2.3841857e-11	-7.4577333e-10	0.9960247	1.4329479e-18
1.770089273664839e-11	3.528595e-11	-7.038116e-10	0.99602467	1.4394351e-18
1.7751714660344762e-11	-7.6293945e-12	-6.7687034e-10	0.9960245	1.4462887e-18
1.7801972475585345e-11	-5.912781e-11	-6.918907e-10	0.99602455	1.450759e-18
1.785127704589733e-11	-3.4332277e-11	-7.209778e-10	0.9960245	1.4514502e-18
1.7902266472031438e-11	-3.814697e-11	-7.5244905e-10	0.9960245	1.4494837e-18
1.7950305319072305e-11	-3.9100646e-11	-7.276535e-10	0.9960245	1.4460268e-18
1.800036822811084e-11	-2.193451e-11	-7.3051454e-10	0.99602467	1.4413862e-18
1.805017666730723e-11	-5.3405762e-11	-7.247925e-10	0.9960247	1.4361511e-18
1.8102237780583464e-11	-5.912781e-11	-7.867813e-10	0.99602485	1.4304586e-18
1.815192048867256e-11	1.1444092e-11	-7.505417e-10	0.996025	1.4250819e-18
1.820167364481263e-11	-3.4332277e-11	-7.352829e-10	0.9960251	1.4199581e-18
1.825152521906141e-11	-5.531311e-11	-7.648468e-10	0.9960252	1.4151446e-18
1.8301450016872443e-11	-3.2424927e-11	-8.0013274e-10	0.99602526	1.4105736e-18
1.83514276046821e-11	2.4795532e-11	-7.9917906e-10	0.99602526	1.4061914e-18
1.8401469969319798e-11	3.6239622e-11	-7.5244905e-10	0.9960253	1.4020217e-18
1.8451616423116917e-11	-9.536743e-12	-7.4386597e-10	0.99602544	1.398153e-18
1.8501927907345347e-11	-1.9073486e-11	-7.8296664e-10	0.9960255	1.3947234e-18
1.8550046234256254e-11	-4.196167e-11	-7.953644e-10	0.9960255	1.3919884e-18
1.8600804869022656e-11	-7.6293945e-12	-7.8868867e-10	0.99602556	1.3897323e-18
1.8651813614400146e-11	-3.4332277e-11	-7.6007844e-10	0.99602556	1.3881475e-18
1.870063955927819e-11	-5.7220458e-11	-7.247925e-10	0.99602556	1.3873144e-18
1.8752196881624785e-11	-9.346008e-11	-7.920265e-10	0.99602556	1.3872692e-18
1.8801626067456848e-11	-4.9591064e-11	-8.158684e-10	0.9960255	1.3882107e-18
1.8851360664221907e-11	-3.9100646e-11	-8.249283e-10	0.99602556	1.3901285e-18
1.8900960475826295e-11	0	-8.8238716e-10	0.9960255	1.3916195e-18
1.8950394175052822e-11	3.4332277e-11	-8.75473e-10	0.99602556	1.3925869e-18
1.9001935935451897e-11	4.4822694e-11	-8.354187e-10	0.99602556	1.3924984e-18
1.9050622122244885e-11	2.0980835e-11	-8.163452e-10	0.99602556	1.3912644e-18
1.9101520270900306e-11	5.722046e-12	-8.7356566e-10	0.9960257	1.3893758e-18
1.915208002805883e-11	2.9563903e-11	-8.6832047e-10	0.99602574	1.3866472e-18
1.9201949895521958e-11	7.2479245e-11	-8.935928e-10	0.99602586	1.3823647e-18
1.9251224602648316e-11	9.918213e-11	-8.716583e-10	0.99602604	1.3769524e-18
1.9300063717732786e-11	1.1062622e-10	-8.468628e-10	0.996026	1.3708669e-18
1.935093654917269e-11	1.2874603e-10	-8.6593627e-10	0.99602616	1.3641566e-18
1.940166119653188e-11	1.7929078e-10	-8.430481e-10	0.9960263	1.3573817e-18
1.9450045483790477e-11	1.8692016e-10	-8.0394746e-10	0.9960264	1.3510209e-18
1.950076067945479e-11	1.8119813e-10	-8.0490115e-10	0.9960265	1.3445568e-18
1.9551538849578824e-11	1.6021728e-10	-7.7724455e-10	0.9960266	1.3383415e-18
1.9600096475754557e-11	1.2779236e-10	-8.1348417e-10	0.99602664	1.332671e-18
1.9651073303670395e-11	1.3160706e-10	-7.8749657e-10	0.99602675	1.327016e-18
1.9702160797207843e-11	7.4386594e-11	-8.1157686e-10	0.9960268	1.321643e-18
1.9751028711314217e-11	1.14440915e-10	-8.239746e-10	0.99602693	1.316767e-18