//mumax 3.11.1 [linux_amd64 go1.24.0(gc) CUDA-12.8]
//commit hash: 549d2a52
//CPU info: Intel(R) Core(TM) i7-14650HX, Cores: 12, MHz: 2419.209
//GPU info: NVIDIA GeForce RTX 5070 Ti Laptop GPU(12226MB), CUDA Driver 12.8, cc=12.0, using cc=120 PTX
//OS  info: Ubuntu 24.04.4 LTS, Hostname: wjl-5070ti-laptop
//Timestamp: 2026-03-07 22:35:10
//(c) Arne Vansteenkiste, Dynamat LAB, Ghent University, Belgium
//This is free software without any warranty. See license.txt
//********************************************************************//
//  If you use mumax in any work or publication,                      //
//  we kindly ask you to cite the references in references.bib        //
//********************************************************************//
//output directory: run_pbc_nodemag.out/
//starting GUI at http://127.0.0.1:35370
SetGridSize(128, 128, 128)
SetCellSize(2e-9, 2e-9, 2e-9)
SetPBC(1, 1, 1)
//resizing...
Msat = 860e3
Aex = 13e-12
Dbulk = 1.58e-3
Ku1 = 0
alpha = 0.5
EnableDemag = false
B_ext = vector(0, 0, 0.5)
m.LoadFile("bulk_hopfion_init.ovf")
autosave(m, 2e-10)
tableautosave(1e-11)
TableAdd(E_Total)
run(2e-9)
