# t (s)	mx ()	my ()	mz ()	E_total (J)
0	-4.3296813e-10	-9.469986e-10	0.9960304	1.086122e-18
5.001971868850679e-14	-4.196167e-10	-9.498596e-10	0.9960304	1.0861258e-18
1.0222948076597156e-13	-4.2152404e-10	-8.5830687e-10	0.99603045	1.0861737e-18
1.5074533180567738e-13	-4.5394896e-10	-6.9999695e-10	0.99603045	1.0862541e-18
2.0000522115203298e-13	-4.97818e-10	-5.130768e-10	0.9960304	1.086371e-18
2.517014748927558e-13	-6.198883e-10	-2.5749206e-10	0.9960304	1.0865674e-18
3.0274082346108914e-13	-8.163452e-10	-2.002716e-11	0.9960304	1.0868759e-18
3.532404523460425e-13	-1.0471344e-09	2.1076202e-10	0.9960304	1.0873459e-18
4.027302943748327e-13	-1.2588501e-09	3.979206e-10	0.9960304	1.0879652e-18
4.5134579633006815e-13	-1.5058518e-09	5.903244e-10	0.9960304	1.0887406e-18
5.025101508304696e-13	-1.7147064e-09	7.5340273e-10	0.9960304	1.0897744e-18
5.531105270320926e-13	-1.9378663e-09	9.152889e-10	0.99603033	1.0910582e-18
6.001364095580397e-13	-2.1400453e-09	1.0714531e-09	0.99603033	1.0925311e-18
6.528879700915006e-13	-2.3651123e-09	1.217842e-09	0.99603033	1.0945083e-18
7.022189698978323e-13	-2.5672913e-09	1.3217926e-09	0.9960304	1.0967647e-18
7.51265992352532e-13	-2.746582e-09	1.4486313e-09	0.9960303	1.0994607e-18
8.024428532986824e-13	-2.943039e-09	1.5487671e-09	0.99603033	1.1024143e-18
8.50042583443716e-13	-3.074646e-09	1.6765594e-09	0.9960303	1.1053638e-18
9.001125141651446e-13	-3.238678e-09	1.7604828e-09	0.9960302	1.1086784e-18
9.519991321076604e-13	-3.35598e-09	1.8472671e-09	0.9960302	1.1118567e-18
1.0026488372543658e-12	-3.414154e-09	1.8997193e-09	0.9960302	1.1145006e-18
1.0519785201462644e-12	-3.4503937e-09	1.9550324e-09	0.99603015	1.1164736e-18
1.1007151064451007e-12	-3.479004e-09	1.9836426e-09	0.99603015	1.1182021e-18
1.1511668486146526e-12	-3.4923553e-09	2.0008086e-09	0.99603015	1.1195456e-18
1.2004268192514788e-12	-3.4847258e-09	2.008438e-09	0.99603015	1.1203285e-18
1.2513491707725659e-12	-3.490448e-09	2.0210742e-09	0.9960301	1.1207593e-18
1.30192519296546e-12	-3.511429e-09	1.9974709e-09	0.99603015	1.1210575e-18
1.3522257557993687e-12	-3.5247802e-09	2.0017623e-09	0.99603	1.1212543e-18
1.4020615424435889e-12	-3.5247802e-09	2.0155906e-09	0.99603015	1.1212859e-18
1.4516243794508989e-12	-3.537178e-09	2.0074844e-09	0.99603015	1.1212252e-18
1.5015252570853376e-12	-3.551483e-09	2.0065307e-09	0.99603015	1.1212805e-18
1.551911499607629e-12	-3.5591126e-09	1.9865036e-09	0.99603015	1.1215154e-18
1.6023384023799189e-12	-3.578186e-09	1.9769668e-09	0.99603	1.1217675e-18
1.6523025876071332e-12	-3.6201477e-09	1.9769668e-09	0.99603015	1.1218508e-18
1.7017218044869927e-12	-3.6029815e-09	1.9571782e-09	0.99603015	1.1217466e-18
1.7513266159185457e-12	-3.6010743e-09	1.9454955e-09	0.99603015	1.1217057e-18
1.8022686716238658e-12	-3.5934449e-09	1.9569397e-09	0.99603	1.1221821e-18
1.8519408787528744e-12	-3.5705567e-09	2.017975e-09	0.99603	1.1232608e-18
1.901940507278151e-12	-3.633499e-09	2.0465851e-09	0.99603	1.1245588e-18
1.9516106456729584e-12	-3.65448e-09	2.067566e-09	0.99603	1.1257085e-18
2.0004320470141657e-12	-3.684193e-09	2.0723343e-09	0.99603	1.1264253e-18
2.0508401795753055e-12	-3.6878587e-09	2.0551683e-09	0.99603	1.1267179e-18
2.100784709027343e-12	-3.6878587e-09	2.067566e-09	0.9960299	1.1268141e-18
2.1505029384338573e-12	-3.6907195e-09	2.058506e-09	0.9960299	1.1268196e-18
2.2006914301328924e-12	-3.6964416e-09	2.0465851e-09	0.99602985	1.1270233e-18
2.252080817706425e-12	-3.7231445e-09	2.0713806e-09	0.99602985	1.1278091e-18
2.3015698041414107e-12	-3.7326813e-09	2.0170212e-09	0.99602985	1.1289554e-18
2.3504142615734357e-12	-3.7384034e-09	2.0332336e-09	0.99602985	1.12975e-18
2.4015295312034183e-12	-3.7994385e-09	1.994133e-09	0.99602985	1.130436e-18
2.4506281931353277e-12	-3.8146974e-09	2.0112991e-09	0.9960299	1.1314158e-18
2.500820914946826e-12	-3.911972e-09	1.9989013e-09	0.99602985	1.1331735e-18
2.5515802988826786e-12	-4.037857e-09	2.0074844e-09	0.99602985	1.1354606e-18
2.602216290707013e-12	-4.1656496e-09	1.9626618e-09	0.9960298	1.1377598e-18
2.651819335475058e-12	-4.2181014e-09	1.933098e-09	0.9960298	1.1392833e-18
2.7008511189975792e-12	-4.2285917e-09	1.9221307e-09	0.9960298	1.1404187e-18
2.751917883813948e-12	-4.255295e-09	1.8892288e-09	0.9960298	1.1412553e-18
2.800310239633694e-12	-4.2686463e-09	1.9021034e-09	0.99602973	1.1419817e-18
2.8514674800893478e-12	-4.2858126e-09	1.9283295e-09	0.99602973	1.1429127e-18
2.9012007055487782e-12	-4.3128727e-09	1.9016266e-09	0.99602973	1.1429586e-18
2.9501253064115425e-12	-4.2915342e-09	1.8777848e-09	0.99602973	1.1425771e-18
3.0015980128680785e-12	-4.304886e-09	1.8787385e-09	0.99602973	1.1422308e-18
3.051284978575676e-12	-4.2686463e-09	1.8768311e-09	0.99602973	1.1422474e-18
3.101729153554375e-12	-4.272461e-09	1.8930435e-09	0.99602973	1.1427116e-18
3.150640159050789e-12	-4.2591095e-09	1.8939972e-09	0.99602973	1.1438456e-18
3.2019933290535756e-12	-4.3144226e-09	1.9176005e-09	0.99602973	1.14496e-18
3.2506751590770108e-12	-4.337311e-09	1.888275e-09	0.99602973	1.1459609e-18
3.302103658305758e-12	-4.356384e-09	1.8873214e-09	0.9960297	1.1471794e-18
3.350893008541679e-12	-4.386902e-09	1.8310546e-09	0.9960296	1.1483072e-18
3.40173519087657e-12	-4.3907167e-09	1.835823e-09	0.9960297	1.1491218e-18
3.4516712195509048e-12	-4.4193267e-09	1.8177032e-09	0.9960297	1.1493095e-18
3.50099318248537e-12	-4.4403077e-09	1.8119812e-09	0.99602973	1.1491205e-18
3.552314026192136e-12	-4.4231414e-09	1.8596649e-09	0.99602973	1.1486638e-18
3.6010461404506155e-12	-4.4469832e-09	1.8692017e-09	0.9960296	1.1481572e-18
3.652113382804704e-12	-4.4822692e-09	1.9016266e-09	0.9960297	1.1475786e-18
3.701278484380744e-12	-4.488945e-09	1.935959e-09	0.99602973	1.1473124e-18
3.751312673069606e-12	-4.4937134e-09	1.906395e-09	0.9960297	1.1475624e-18
3.8019361234506225e-12	-4.451752e-09	1.9140243e-09	0.99602973	1.1482119e-18
3.85021592559027e-12	-4.447937e-09	1.9598008e-09	0.99602973	1.1489742e-18
3.901585050450643e-12	-4.4345856e-09	1.9779205e-09	0.99602973	1.1502249e-18
3.950980951311531e-12	-4.447937e-09	2.038002e-09	0.9960296	1.151968e-18
4.0007702262982925e-12	-4.451573e-09	2.0618438e-09	0.9960296	1.1541534e-18
4.05037368106949e-12	-4.4345856e-09	2.108574e-09	0.9960296	1.1562221e-18
4.101487407700504e-12	-4.426956e-09	2.1429063e-09	0.9960296	1.1573998e-18
4.151777849195927e-12	-4.3849946e-09	2.1495818e-09	0.99602956	1.1579004e-18
4.200790869406585e-12	-4.4288635e-09	2.1333695e-09	0.9960296	1.1575143e-18
4.2510938475264065e-12	-4.476547e-09	2.117157e-09	0.9960296	1.156452e-18
4.301160284864235e-12	-4.5433044e-09	2.1305084e-09	0.9960296	1.1552898e-18
4.351925871018589e-12	-4.611015e-09	2.0971298e-09	0.9960296	1.1544991e-18
4.401503964281966e-12	-4.6443938e-09	2.1123887e-09	0.9960297	1.154488e-18
4.4500829391552405e-12	-4.646301e-09	2.1467208e-09	0.99602973	1.1556091e-18
4.501376581989829e-12	-4.611969e-09	2.3212432e-09	0.9960296	1.156942e-18
4.552474607849656e-12	-4.5833586e-09	2.4204254e-09	0.9960296	1.1581215e-18
4.601316368123689e-12	-4.550934e-09	2.5088787e-09	0.99602956	1.159542e-18
4.650356462234289e-12	-4.465103e-09	2.6121139e-09	0.9960295	1.1611907e-18
4.7018229732210224e-12	-4.372597e-09	2.7332305e-09	0.99602944	1.1628106e-18
4.750363677318988e-12	-4.3468473e-09	2.7551652e-09	0.99602944	1.16403e-18
4.8012724400945865e-12	-4.3029784e-09	2.7885436e-09	0.9960294	1.1651566e-18
4.851971438672013e-12	-4.289627e-09	2.7952194e-09	0.9960294	1.1660996e-18
4.900539342140835e-12	-4.2295456e-09	2.8219223e-09	0.9960294	1.1674073e-18
4.952317128754286e-12	-4.18663e-09	2.9497147e-09	0.9960294	1.1695252e-18
5.001603612015005e-12	-4.18663e-09	3.0875207e-09	0.9960293	1.1717137e-18
5.052198341811585e-12	-4.236221e-09	3.1633378e-09	0.9960294	1.1726472e-18
5.101471087288006e-12	-4.3621062e-09	3.1642913e-09	0.9960294	1.1724048e-18
5.151806210095343e-12	-4.3830872e-09	3.088951e-09	0.9960294	1.1711616e-18
5.201480296672624e-12	-4.402161e-09	3.013611e-09	0.9960294	1.1695546e-18
5.251351142219032e-12	-4.3964388e-09	2.8858185e-09	0.9960294	1.1680847e-18
5.3017125393536446e-12	-4.4078825e-09	2.7713776e-09	0.9960294	1.1669173e-18
5.350001007848095e-12	-4.3582915e-09	2.6624203e-09	0.9960294	1.166016e-18
5.401111801077368e-12	-4.2886734e-09	2.591133e-09	0.99602944	1.1653406e-18
5.450317971782844e-12	-4.2629242e-09	2.5310516e-09	0.99602944	1.1650686e-18
5.5003137323393e-12	-4.1770933e-09	2.49815e-09	0.99602944	1.1654114e-18
5.551160179330488e-12	-4.0950776e-09	2.411127e-09	0.99602944	1.1665175e-18
5.601849370057599e-12	-3.9482115e-09	2.3088456e-09	0.9960294	1.1674878e-18
5.652496741278169e-12	-3.845215e-09	2.1972657e-09	0.99602944	1.1684314e-18
5.702244102239264e-12	-3.826141e-09	2.0737647e-09	0.9960294	1.1685873e-18
5.7511174530941426e-12	-3.7593844e-09	2.053261e-09	0.9960294	1.1680666e-18
5.802178813356871e-12	-3.7889483e-09	2.1009445e-09	0.99602944	1.1673482e-18
5.851029230204065e-12	-3.7822723e-09	2.1162032e-09	0.9960294	1.1668198e-18
5.900423279980131e-12	-3.7727355e-09	2.1696092e-09	0.9960294	1.1666906e-18
5.952048095108479e-12	-3.7536623e-09	2.175331e-09	0.9960294	1.166379e-18
6.0006505032242016e-12	-3.7441255e-09	2.3088456e-09	0.9960294	1.165695e-18
6.051540944366604e-12	-3.7841796e-09	2.413273e-09	0.9960294	1.1648912e-18
6.100398094443523e-12	-3.8051606e-09	2.5310516e-09	0.9960294	1.1643899e-18
6.152301380264385e-12	-3.8363934e-09	2.6464462e-09	0.99602944	1.1642931e-18
6.201980107299143e-12	-3.8986205e-09	2.723694e-09	0.9960294	1.1643894e-18
6.2520286528075495e-12	-3.9844514e-09	2.7742386e-09	0.9960294	1.1647869e-18
6.300182189459308e-12	-4.1427612e-09	2.8553009e-09	0.9960294	1.165705e-18
6.350696061477359e-12	-4.3334962e-09	2.938509e-09	0.9960294	1.1665206e-18
6.40126459039149e-12	-4.512787e-09	3.0355454e-09	0.9960294	1.1673974e-18
6.451656025447033e-12	-4.611015e-09	3.1070708e-09	0.9960293	1.1681193e-18
6.5019375758753775e-12	-4.650116e-09	3.0593872e-09	0.9960293	1.168748e-18
6.551494944149359e-12	-4.5890807e-09	3.036499e-09	0.9960293	1.1687628e-18
6.600434799788574e-12	-4.5280455e-09	2.9239655e-09	0.9960294	1.1683039e-18
6.6515169583478116e-12	-4.4002535e-09	2.8533935e-09	0.9960293	1.1676119e-18
6.7022824524131445e-12	-4.266739e-09	2.8886795e-09	0.9960293	1.166721e-18
6.750135086236694e-12	-4.1542054e-09	2.968788e-09	0.9960294	1.1655841e-18
6.8019052857207896e-12	-4.0893555e-09	3.138542e-09	0.9960294	1.1639061e-18
6.850516132331919e-12	-4.0836334e-09	3.3216476e-09	0.9960294	1.1619824e-18
6.9008035218091575e-12	-4.152298e-09	3.5295487e-09	0.99602944	1.1597865e-18
6.9505332225152756e-12	-4.257202e-09	3.6518575e-09	0.9960294	1.1574794e-18
7.001918133059121e-12	-4.3497086e-09	3.745079e-09	0.9960295	1.1549815e-18
7.05050195619462e-12	-4.436493e-09	3.7384034e-09	0.9960295	1.1525465e-18
7.100860826721405e-12	-4.507065e-09	3.6725998e-09	0.99602956	1.1500068e-18
7.1511487352951165e-12	-4.518509e-09	3.5820007e-09	0.99602956	1.1475517e-18
7.201786685848674e-12	-4.590988e-09	3.4635066e-09	0.9960296	1.1452534e-18
7.251033260685991e-12	-4.577637e-09	3.2806395e-09	0.99602973	1.1432947e-18
7.301791841655692e-12	-4.5757296e-09	3.170967e-09	0.9960297	1.1417782e-18
7.350133464167858e-12	-4.59671e-09	3.0527114e-09	0.9960297	1.1412215e-18
7.40234362648229e-12	-4.5890807e-09	3.0078888e-09	0.9960297	1.141333e-18
7.450254273525054e-12	-4.621506e-09	2.9306413e-09	0.99602973	1.141836e-18
7.500721669468621e-12	-4.6443938e-09	2.8247833e-09	0.99602973	1.1423921e-18
7.550569658750501e-12	-4.6634674e-09	2.6931763e-09	0.99602973	1.1425746e-18
7.600129642287557e-12	-4.7035216e-09	2.6397704e-09	0.99602973	1.1425941e-18
7.650044423814181e-12	-4.7492983e-09	2.5463105e-09	0.99602973	1.1428174e-18
7.70048671643106e-12	-4.7836304e-09	2.4166107e-09	0.9960297	1.14337e-18
7.751259354016882e-12	-4.7492983e-09	2.336502e-09	0.99602973	1.1441513e-18
7.802466534670665e-12	-4.7893525e-09	2.289772e-09	0.99602973	1.1452634e-18
7.85139678979469e-12	-4.852295e-09	2.2025108e-09	0.9960297	1.1465646e-18
7.900515391124383e-12	-4.8694613e-09	2.155304e-09	0.9960297	1.1480551e-18
7.952550182896006e-12	-4.8561097e-09	2.1724702e-09	0.9960297	1.149968e-18
8.002389156278266e-12	-4.9343107e-09	2.2771358e-09	0.9960296	1.1522452e-18
8.05246199863212e-12	-4.942894e-09	2.5320053e-09	0.9960296	1.1548603e-18
8.101735511762699e-12	-4.91333e-09	2.8333664e-09	0.99602956	1.1567224e-18
8.150232745321417e-12	-4.9409867e-09	3.1588077e-09	0.9960295	1.1578811e-18
8.200749047792593e-12	-4.97818e-09	3.3626557e-09	0.99602956	1.1586542e-18
8.250721265372898e-12	-5.0296785e-09	3.499031e-09	0.99602956	1.1589973e-18
8.300221068219095e-12	-5.111694e-09	3.5161971e-09	0.99602956	1.1589919e-18
8.35198973340145e-12	-5.1879883e-09	3.5161971e-09	0.9960296	1.1588441e-18
8.40140120453381e-12	-5.290985e-09	3.4208298e-09	0.9960295	1.158779e-18
8.45109836672444e-12	-5.35202e-09	3.3273697e-09	0.99602956	1.1589189e-18
8.501140860524417e-12	-5.3424833e-09	3.218651e-09	0.99602956	1.1593224e-18
8.550844213094592e-12	-5.327225e-09	3.1485559e-09	0.9960295	1.1594726e-18
8.602371468199635e-12	-5.252838e-09	2.998352e-09	0.9960295	1.1591668e-18
8.65109257190339e-12	-5.092621e-09	2.8190612e-09	0.99602956	1.1586516e-18
8.702107480903408e-12	-5.013317e-09	2.6483535e-09	0.99602956	1.1580277e-18
8.750734355949685e-12	-4.9521627e-09	2.5405884e-09	0.99602956	1.1574647e-18
8.802071509236625e-12	-4.807472e-09	2.4318696e-09	0.99602956	1.1570478e-18
8.851329075681309e-12	-4.7683715e-09	2.4299622e-09	0.99602956	1.1568861e-18
8.900864227883305e-12	-4.7369e-09	2.4108886e-09	0.9960296	1.1569139e-18
8.950675833668e-12	-4.6386717e-09	2.430439e-09	0.9960296	1.1571395e-18
9.00096101892077e-12	-4.5604707e-09	2.4518967e-09	0.9960296	1.1577302e-18
9.051767889315759e-12	-4.421234e-09	2.4776459e-09	0.9960295	1.1587666e-18
9.100489148984398e-12	-4.2839052e-09	2.500534e-09	0.99602956	1.16019e-18
9.152085718521234e-12	-4.1007997e-09	2.4662017e-09	0.99602956	1.1620329e-18
9.201316954298832e-12	-3.879547e-09	2.4557114e-09	0.99602956	1.1640644e-18
9.250634145592079e-12	-3.704071e-09	2.4943352e-09	0.9960295	1.16625e-18
9.30218654246178e-12	-3.6993026e-09	2.5177003e-09	0.9960294	1.1682012e-18
9.350993301231128e-12	-3.706932e-09	2.4728775e-09	0.9960294	1.1699105e-18
9.402487951289316e-12	-3.751755e-09	2.448082e-09	0.9960294	1.1718884e-18
9.451519130479945e-12	-3.7784575e-09	2.3994446e-09	0.9960294	1.1739437e-18
9.500485210884889e-12	-3.8280485e-09	2.386093e-09	0.9960293	1.17597e-18
9.551868428590578e-12	-3.9196015e-09	2.228737e-09	0.9960292	1.1779566e-18
9.600430993434215e-12	-3.9291383e-09	2.1400453e-09	0.99602926	1.1795784e-18
9.651092357259412e-12	-3.9482115e-09	2.0303725e-09	0.9960292	1.1807873e-18
9.701035057557283e-12	-3.9291383e-09	1.903534e-09	0.99602914	1.1812402e-18
9.750542196558599e-12	-3.8371084e-09	1.8253327e-09	0.9960292	1.1812712e-18
9.802085026431272e-12	-3.742218e-09	1.7929077e-09	0.99602914	1.1809094e-18
9.850724638723604e-12	-3.7059784e-09	1.8210411e-09	0.99602926	1.1801965e-18
9.901156530327486e-12	-3.6525727e-09	1.7673969e-09	0.99602926	1.1789791e-18
9.951258648300499e-12	-3.5400392e-09	1.8205643e-09	0.99602926	1.1775557e-18
1.0001544348311715e-11	-3.4999847e-09	1.8177032e-09	0.99602926	1.1762754e-18
1.0052082008829035e-11	-3.3550263e-09	1.7700196e-09	0.99602926	1.1751812e-18
1.0100093554726856e-11	-3.2272338e-09	1.8215179e-09	0.99602926	1.1740725e-18
1.0150855274439548e-11	-3.0956269e-09	1.8796922e-09	0.9960293	1.1731611e-18
1.0202378886638717e-11	-2.982676e-09	1.9321442e-09	0.9960293	1.1728248e-18
1.0252041464372461e-11	-2.8648377e-09	1.988411e-09	0.99602926	1.1729944e-18
1.0301738036574768e-11	-2.7313232e-09	2.0599364e-09	0.99602926	1.1731945e-18
1.0351708249973749e-11	-2.5978089e-09	2.1977424e-09	0.99602926	1.1736454e-18
1.0401461402947522e-11	-2.5424958e-09	2.2928714e-09	0.99602926	1.1738997e-18
1.0450902867034167e-11	-2.4909974e-09	2.4194717e-09	0.9960293	1.1738816e-18
1.050012352780263e-11	-2.4623872e-09	2.6187896e-09	0.9960293	1.1736792e-18
1.0551644496389537e-11	-2.5138855e-09	2.84338e-09	0.99602926	1.1733382e-18
1.0600642572410637e-11	-2.6664735e-09	3.0078888e-09	0.9960293	1.1729601e-18
1.0652000285466469e-11	-2.8190612e-09	3.218651e-09	0.99602926	1.1724962e-18
1.070092253035639e-11	-3.0202865e-09	3.4127234e-09	0.9960293	1.1720658e-18
1.0752431927757482e-11	-3.2844543e-09	3.5657883e-09	0.9960293	1.1717253e-18
1.0801778948719484e-11	-3.4942627e-09	3.6725998e-09	0.9960293	1.1716346e-18
1.0851549959256246e-11	-3.6945342e-09	3.6964416e-09	0.9960294	1.1719061e-18
1.0901254193814113e-11	-3.8280485e-09	3.7059784e-09	0.9960294	1.1721197e-18
1.0950948671522446e-11	-3.9978025e-09	3.6854744e-09	0.9960293	1.1723262e-18
1.1000697462533502e-11	-4.146576e-09	3.6048888e-09	0.9960294	1.1725824e-18
1.1052402019375537e-11	-4.2419432e-09	3.4370422e-09	0.9960293	1.1724009e-18
1.1101178575090017e-11	-4.3456554e-09	3.2873153e-09	0.9960293	1.1718672e-18
1.1152128174710587e-11	-4.3368638e-09	3.1461715e-09	0.9960293	1.1711191e-18
1.1200634890056763e-11	-4.4498445e-09	3.0174256e-09	0.9960293	1.1704003e-18
1.1251799302595785e-11	-4.5585633e-09	2.796173e-09	0.9960293	1.1698184e-18
1.1300932724922297e-11	-4.606247e-09	2.6729108e-09	0.9960294	1.1695693e-18
1.1350647255962567e-11	-4.623413e-09	2.515793e-09	0.9960293	1.1697956e-18
1.1400968863976043e-11	-4.616737e-09	2.3851394e-09	0.99602926	1.1705715e-18
1.145070952744982e-11	-4.6653748e-09	2.350807e-09	0.9960293	1.1708288e-18
1.1501968267035639e-11	-4.6386717e-09	2.2020339e-09	0.9960293	1.1703183e-18
1.1550177964139146e-11	-4.5337676e-09	2.1824837e-09	0.9960293	1.1694134e-18
1.160044408072601e-11	-4.5051576e-09	2.133131e-09	0.9960293	1.1682512e-18
1.1650658898746413e-11	-4.385948e-09	2.038002e-09	0.9960294	1.1670751e-18
1.170112930907911e-11	-4.2915342e-09	1.9640922e-09	0.9960293	1.1660684e-18
1.1752131646726138e-11	-4.2037964e-09	1.9073487e-09	0.9960294	1.1654126e-18
1.1801429443379542e-11	-4.096985e-09	1.8405915e-09	0.9960294	1.1653061e-18
1.185159818123995e-11	-4.0092467e-09	1.7910003e-09	0.9960294	1.1659106e-18
1.1901810885844074e-11	-3.9386747e-09	1.7080307e-09	0.9960294	1.1665572e-18
1.1951799488681492e-11	-3.8604737e-09	1.6765594e-09	0.9960294	1.1670108e-18
1.2001577094718006e-11	-3.876686e-09	1.5947819e-09	0.99602944	1.1672883e-18
1.2051024978953932e-11	-3.8700105e-09	1.4762879e-09	0.9960294	1.1672978e-18
1.2100125297147878e-11	-3.871918e-09	1.4910698e-09	0.9960294	1.1670403e-18
1.2151480427908174e-11	-3.9100647e-09	1.5115738e-09	0.9960294	1.1666242e-18
1.2200400416656614e-11	-3.9482115e-09	1.5792847e-09	0.9960294	1.1662389e-18
1.2252037177839225e-11	-3.9310457e-09	1.5926361e-09	0.99602944	1.1660339e-18
1.2301710637294382e-11	-3.871918e-09	1.6822815e-09	0.9960295	1.1662264e-18
1.2351243307283369e-11	-3.900528e-09	1.7290115e-09	0.99602944	1.1663057e-18
1.2400485743023294e-11	-3.814459e-09	1.6889572e-09	0.99602944	1.1661593e-18
1.245220667419776e-11	-3.74794e-09	1.6365052e-09	0.99602944	1.1660183e-18
1.2501938099210667e-11	-3.7021637e-09	1.57547e-09	0.99602956	1.1662613e-18
1.2552497716232517e-11	-3.610611e-09	1.4863014e-09	0.99602944	1.1672448e-18
1.2600698860162106e-11	-3.5266876e-09	1.4305115e-09	0.99602944	1.1683523e-18
1.2651338685521565e-11	-3.4351348e-09	1.3685226e-09	0.99602944	1.1694369e-18
1.2701850513829126e-11	-3.3111571e-09	1.3008118e-09	0.9960294	1.1704102e-18
1.2752341635261345e-11	-3.2176972e-09	1.2722016e-09	0.9960294	1.1713745e-18
1.280046865396428e-11	-3.133774e-09	1.2540817e-09	0.9960294	1.1724654e-18
1.2851292678003735e-11	-3.1147003e-09	1.2836456e-09	0.9960293	1.1738056e-18
1.290253285055998e-11	-3.2634735e-09	1.335144e-09	0.9960293	1.1756435e-18
1.2951487651711442e-11	-3.3998488e-09	1.3313294e-09	0.99602926	1.1777649e-18
1.3000154861382142e-11	-3.5896301e-09	1.4190674e-09	0.99602926	1.1795779e-18
1.3050982658707347e-11	-3.827095e-09	1.5697479e-09	0.9960292	1.1810402e-18
1.3100954869092992e-11	-4.005432e-09	1.7549991e-09	0.9960292	1.1815837e-18
1.3150172133802056e-11	-4.085541e-09	1.9230844e-09	0.9960292	1.1814005e-18
1.3201306979736859e-11	-4.070282e-09	2.0637512e-09	0.9960292	1.1807431e-18
1.3252131280859477e-11	-3.9806367e-09	2.1243096e-09	0.99602926	1.1798457e-18
1.3300457011302403e-11	-3.894806e-09	2.1629334e-09	0.99602926	1.1789402e-18
1.3351142067182263e-11	-3.7288665e-09	2.1095277e-09	0.99602926	1.177958e-18
1.3401309134916258e-11	-3.4866332e-09	2.07901e-09	0.9960292	1.1766306e-18
1.345107844485887e-11	-3.08609e-09	1.947403e-09	0.99602926	1.1750735e-18
1.3500566099200266e-11	-2.5455356e-09	1.9025803e-09	0.9960292	1.1733813e-18
1.3551983860841188e-11	-1.8234253e-09	1.8863677e-09	0.9960293	1.1714192e-18
1.3600466250330776e-11	-8.106232e-10	1.9741058e-09	0.99602926	1.1693078e-18
1.365054772338247e-11	4.863739e-10	2.152443e-09	0.9960293	1.1668705e-18
1.370221783034541e-11	2.1839142e-09	2.363205e-09	0.9960293	1.1641725e-18
1.3751140316500623e-11	4.114151e-09	2.6643276e-09	0.9960294	1.1615258e-18
1.3801941358272995e-11	6.2904357e-09	3.098488e-09	0.9960294	1.1587722e-18
1.3850327799445163e-11	8.523941e-09	3.6439896e-09	0.9960294	1.1561861e-18
1.3900760151210693e-11	1.0990143e-08	4.356384e-09	0.9960294	1.153548e-18
1.3951080317615862e-11	1.34696965e-08	5.2378177e-09	0.99602944	1.150987e-18
1.4001349480056833e-11	1.593399e-08	6.3676833e-09	0.99602956	1.1485143e-18
1.405167327072096e-11	1.8152237e-08	7.562638e-09	0.9960295	1.1461454e-18
1.4102157766098146e-11	2.0233154e-08	8.857727e-09	0.99602956	1.1438957e-18
1.415072022923824e-11	2.1957398e-08	1.0231972e-08	0.99602956	1.1418717e-18
1.4201948195278308e-11	2.3441315e-08	1.160717e-08	0.9960296	1.1399192e-18
1.4251577561583166e-11	2.4562835e-08	1.2838363e-08	0.9960297	1.1382434e-18
1.4301952337639242e-11	2.5325775e-08	1.3994217e-08	0.9960297	1.1367919e-18
1.4350772044400826e-11	2.5815964e-08	1.4819622e-08	0.9960297	1.1356343e-18
1.4400058337275062e-11	2.6184082e-08	1.5581131e-08	0.99602973	1.1346392e-18
1.4452191944807633e-11	2.64225e-08	1.6257285e-08	0.99602973	1.1337705e-18
1.4500210383688457e-11	2.6454925e-08	1.6739369e-08	0.99602973	1.1332068e-18
1.4551547939915672e-11	2.6359558e-08	1.7093658e-08	0.99602973	1.1329758e-18
1.4601555908945923e-11	2.6218414e-08	1.7250061e-08	0.99602973	1.1332728e-18
1.4650024763489615e-11	2.6100158e-08	1.7271041e-08	0.99602973	1.1340965e-18
1.4702174022830857e-11	2.5884628e-08	1.7204284e-08	0.99602973	1.1357564e-18
1.475187994883086e-11	2.567482e-08	1.7079353e-08	0.99602973	1.1375106e-18
1.4801554572690896e-11	2.5485992e-08	1.7071724e-08	0.9960297	1.1393019e-18
1.4851434697644746e-11	2.5194169e-08	1.6985894e-08	0.9960297	1.1413355e-18
1.4901624371215384e-11	2.5051117e-08	1.6940117e-08	0.9960297	1.1437405e-18
1.4951746989854634e-11	2.4765969e-08	1.6958237e-08	0.9960297	1.1461842e-18
1.50014207004321e-11	2.4520874e-08	1.6884089e-08	0.9960297	1.1482805e-18
1.5050767565426335e-11	2.4263382e-08	1.6831398e-08	0.9960297	1.1501329e-18
1.5102415313256884e-11	2.3990632e-08	1.6810418e-08	0.9960296	1.1518615e-18
1.5151298729544656e-11	2.372551e-08	1.682949e-08	0.99602956	1.1533765e-18
1.5200043468955132e-11	2.3405075e-08	1.689887e-08	0.99602956	1.1547981e-18
1.5251267747442874e-11	2.3023606e-08	1.6924382e-08	0.9960296	1.1562471e-18
1.530252681437966e-11	2.2605896e-08	1.6938209e-08	0.99602956	1.1577607e-18
1.535089763456578e-11	2.226448e-08	1.6830445e-08	0.99602956	1.1589237e-18
1.5401439819161404e-11	2.1927834e-08	1.6788483e-08	0.99602956	1.1598303e-18
1.5451813844320155e-11	2.1585464e-08	1.6691208e-08	0.9960295	1.1606023e-18
1.550213034826221e-11	2.1260261e-08	1.6552448e-08	0.9960295	1.1613345e-18
1.5552286129999655e-11	2.0858765e-08	1.634121e-08	0.99602944	1.1619386e-18
1.560183333458399e-11	2.0582199e-08	1.6051532e-08	0.99602944	1.1620585e-18
1.5650925043314818e-11	2.0387649e-08	1.5804291e-08	0.99602944	1.1618448e-18
1.5702245251809425e-11	2.0137787e-08	1.5527249e-08	0.99602944	1.1614658e-18
1.5751123845835467e-11	1.9910813e-08	1.527214e-08	0.99602944	1.161109e-18
1.5800141562506967e-11	1.963997e-08	1.4977456e-08	0.9960295	1.1608471e-18
1.5851794624693972e-11	1.9414902e-08	1.4544725e-08	0.99602956	1.1607027e-18
1.590084701557351e-11	1.9319534e-08	1.4165878e-08	0.99602944	1.1604672e-18
1.5952212339400704e-11	1.9256591e-08	1.3792992e-08	0.9960295	1.1601277e-18
1.6001072528439192e-11	1.9212722e-08	1.3442993e-08	0.9960295	1.1597673e-18
1.6052415510734753e-11	1.9201279e-08	1.3077736e-08	0.99602956	1.1594165e-18
1.6101367049101033e-11	1.9258499e-08	1.27487185e-08	0.99602944	1.1591201e-18
1.6150326853057163e-11	1.9325256e-08	1.2449265e-08	0.99602956	1.1588313e-18
1.6201744467649847e-11	1.9443512e-08	1.2187958e-08	0.99602956	1.1585355e-18
1.625071430818892e-11	1.9563675e-08	1.1938095e-08	0.99602956	1.1582566e-18
1.6302037140620472e-11	1.973456e-08	1.1740685e-08	0.9960295	1.1579028e-18
1.6350743738163955e-11	1.9865036e-08	1.1667251e-08	0.9960295	1.1574601e-18
1.64016781014146e-11	1.9916534e-08	1.15242e-08	0.99602956	1.1568728e-18
1.6450010642878095e-11	2.0059586e-08	1.1389733e-08	0.99602956	1.1562159e-18
1.6500631519262646e-11	2.0177842e-08	1.1304856e-08	0.99602956	1.155462e-18
1.6551170879205007e-11	2.030754e-08	1.1220932e-08	0.99602956	1.1546724e-18
1.6601687213721357e-11	2.0469665e-08	1.1235237e-08	0.99602956	1.1538793e-18
1.6652203096823627e-11	2.0540238e-08	1.1235237e-08	0.9960296	1.153096e-18
1.670046036487009e-11	2.0593642e-08	1.12257e-08	0.9960296	1.1524354e-18
1.675143337561034e-11	2.0669937e-08	1.1187553e-08	0.9960297	1.151913e-18
1.6800441630205478e-11	2.080536e-08	1.1216164e-08	0.9960296	1.1516855e-18
1.6852482698145478e-11	2.0824432e-08	1.1315346e-08	0.9960297	1.1518155e-18
1.6900015882257396e-11	2.072811e-08	1.1300087e-08	0.9960296	1.152243e-18
1.6950372727398534e-11	2.0671845e-08	1.1263848e-08	0.9960296	1.1529381e-18
1.7000933585153622e-11	2.0554543e-08	1.1261463e-08	0.99602956	1.153802e-18
1.7051737498458646e-11	2.0420075e-08	1.1207581e-08	0.99602956	1.15488e-18
1.710029376687524e-11	2.0280838e-08	1.1172294e-08	0.9960296	1.1561818e-18
1.7151722136973444e-11	2.0006627e-08	1.1104345e-08	0.9960295	1.1578814e-18
1.720084956096549e-11	1.9737243e-08	1.0874748e-08	0.99602944	1.1598136e-18
1.7250016720124976e-11	1.9603728e-08	1.0569811e-08	0.9960295	1.1618414e-18
1.7301520488951342e-11	1.9453049e-08	1.0173798e-08	0.9960294	1.163762e-18
1.7350040920820415e-11	1.943016e-08	9.677887e-09	0.9960294	1.1651991e-18
1.7400653900051937e-11	1.9508361e-08	9.142876e-09	0.9960294	1.1662792e-18
1.7450769687684428e-11	1.9657135e-08	8.625984e-09	0.9960294	1.1669076e-18
1.7500454884881997e-11	1.9889832e-08	8.111954e-09	0.9960293	1.1671685e-18
1.7552176651546635e-11	2.013874e-08	7.737159e-09	0.9960294	1.1670804e-18
1.760119289426575e-11	2.0402908e-08	7.35569e-09	0.9960294	1.1668137e-18
1.7650194115159194e-11	2.0681382e-08	7.042885e-09	0.9960293	1.1665369e-18
1.77018620034256e-11	2.1091461e-08	6.712437e-09	0.9960294	1.166411e-18
1.7751434807319428e-11	2.1652221e-08	6.4783094e-09	0.9960293	1.16658e-18
1.780149433312603e-11	2.2250175e-08	6.3610077e-09	0.9960293	1.1671659e-18
1.785214629124556e-11	2.2874833e-08	6.3562395e-09	0.9960293	1.168318e-18
1.7900871264445732e-11	2.3555756e-08	6.3109398e-09	0.99602926	1.1700741e-18
1.7951839519481346e-11	2.4242402e-08	6.39534e-09	0.99602926	1.1716083e-18
1.800191183323034e-11	2.4831772e-08	6.526947e-09	0.9960293	1.1722462e-18
1.805143834454142e-11	2.545166e-08	6.7691803e-09	0.99602926	1.1723897e-18
1.810073785772161e-11	2.5967598e-08	7.183075e-09	0.99602926	1.172339e-18
1.8150053726640326e-11	2.6420594e-08	7.609844e-09	0.9960293	1.1723031e-18
1.8202087606537692e-11	2.6857377e-08	8.084297e-09	0.9960293	1.1724823e-18
1.825203660743027e-11	2.7271271e-08	8.646011e-09	0.9960293	1.1730089e-18
1.8301888042510852e-11	2.7576446e-08	9.196281e-09	0.99602926	1.1734479e-18
1.8351642108771502e-11	2.7816773e-08	9.814262e-09	0.99602926	1.1737992e-18
1.840137506374764e-11	2.7976036e-08	1.04329585e-08	0.99602926	1.174132e-18
1.8451119947546395e-11	2.8022766e-08	1.0996819e-08	0.9960292	1.174479e-18
1.8500787148376065e-11	2.8022766e-08	1.1558056e-08	0.9960292	1.1747545e-18
1.8550586971065273e-11	2.7902603e-08	1.2138367e-08	0.9960292	1.1751555e-18
1.8600678670832843e-11	2.7797698e-08	1.2532234e-08	0.9960292	1.1758424e-18
1.86510394649925e-11	2.7692796e-08	1.3095856e-08	0.9960292	1.1768106e-18
1.8701217325326893e-11	2.7345658e-08	1.3523102e-08	0.9960292	1.1775988e-18
1.8751271745527162e-11	2.6968003e-08	1.39217375e-08	0.9960292	1.1782679e-18
1.8801353906080067e-11	2.6535034e-08	1.4312744e-08	0.9960292	1.1789715e-18
1.885156789853906e-11	2.6004791e-08	1.46007535e-08	0.9960292	1.1798188e-18
1.8901738642468208e-11	2.553749e-08	1.4793635e-08	0.9960292	1.1806285e-18
1.8952033784064673e-11	2.5094986e-08	1.5006066e-08	0.9960292	1.1815811e-18
1.9000114339300737e-11	2.4648667e-08	1.5190125e-08	0.99602914	1.182836e-18
1.9050494411346565e-11	2.4183274e-08	1.52812e-08	0.9960292	1.18391e-18
1.9100344272305365e-11	2.3744583e-08	1.52874e-08	0.99602914	1.1844139e-18
1.9152195092560622e-11	2.3407937e-08	1.5301705e-08	0.9960292	1.1844502e-18
1.9201183920636157e-11	2.3032188e-08	1.5390397e-08	0.9960292	1.1841166e-18
1.9252195197450076e-11	2.2512436e-08	1.5416623e-08	0.99602914	1.1834004e-18
1.9300362516526955e-11	2.2041322e-08	1.5402794e-08	0.99602914	1.1823931e-18
1.935060477009754e-11	2.1522522e-08	1.5363693e-08	0.9960292	1.1811029e-18
1.9400666939522233e-11	2.1064759e-08	1.527214e-08	0.9960292	1.1797064e-18
1.945074716616947e-11	2.0626068e-08	1.5199662e-08	0.9960292	1.1783431e-18
1.9501025429862552e-11	2.0157813e-08	1.4990807e-08	0.9960292	1.177134e-18
1.9551690128985242e-11	1.978302e-08	1.4766693e-08	0.9960292	1.1762119e-18
1.960050040347411e-11	1.9429207e-08	1.453495e-08	0.99602926	1.1757686e-18
1.9652064637582493e-11	1.9132614e-08	1.4238357e-08	0.99602926	1.1755567e-18
1.9701310277138638e-11	1.8862725e-08	1.394558e-08	0.9960293	1.1754738e-18
1.9750486864792016e-11	1.8562316e-08	1.36394505e-08	0.99602926	1.1753317e-18
1.980186364110212e-11	1.838684e-08	1.3176441e-08	0.99602926	1.1749694e-18
1.9850748581451994e-11	1.828766e-08	1.2759209e-08	0.9960293	1.1745885e-18
1.9902142648926043e-11	1.8234253e-08	1.2309313e-08	0.9960292	1.1742437e-18
1.9951157100769765e-11	1.8299103e-08	1.18319985e-08	0.99602926	1.1739706e-18